# vtk DataFile Version 3.0
Scalar Field Data
ASCII
DATASET STRUCTURED_POINTS
DIMENSIONS 51 31 1
ORIGIN 0 0 0
SPACING 0.0196078 0.0322581 1
POINT_DATA 1581
SCALARS scalars double
LOOKUP_TABLE default
0
0
0
0
0
0
0
0
0
0
0
0
0
0
0
0
0
0
0
0
0
0
0
0
0
0
0
0
0
0
0
0
0
0
0
0
0
0
0
0
0
0
0
0
0
0
0
0
0
0
0
0
0.000632511
0.00126502
0.00189753
0.00253004
0.00316256
0.00379507
0.00442758
0.00506009
0.0056926
0.00632511
0.00695762
0.00759013
0.00822264
0.00885515
0.00948767
0.0101202
0.0107527
0.0113852
0.0120177
0.0126502
0.0132827
0.0139152
0.0145478
0.0151803
0.0158128
0.0164453
0.0170778
0.0177103
0.0183428
0.0189753
0.0196078
0.0202404
0.0208729
0.0215054
0.0221379
0.0227704
0.0234029
0.0240354
0.0246679
0.0253004
0.025933
0.0265655
0.027198
0.0278305
0.028463
0.0290955
0.029728
0.0303605
0.030993
0.0316256
0
0.00126502
0.00253004
0.00379507
0.00506009
0.00632511
0.00759013
0.00885515
0.0101202
0.0113852
0.0126502
0.0139152
0.0151803
0.0164453
0.0177103
0.0189753
0.0202404
0.0215054
0.0227704
0.0240354
0.0253004
0.0265655
0.0278305
0.0290955
0.0303605
0.0316256
0.0328906
0.0341556
0.0354206
0.0366856
0.0379507
0.0392157
0.0404807
0.0417457
0.0430108
0.0442758
0.0455408
0.0468058
0.0480708
0.0493359
0.0506009
0.0518659
0.0531309
0.054396
0.055661
0.056926
0.058191
0.059456
0.0607211
0.0619861
0.0632511
0
0.00189753
0.00379507
0.0056926
0.00759013
0.00948767
0.0113852
0.0132827
0.0151803
0.0170778
0.0189753
0.0208729
0.0227704
0.0246679
0.0265655
0.028463
0.0303605
0.0322581
0.0341556
0.0360531
0.0379507
0.0398482
0.0417457
0.0436433
0.0455408
0.0474383
0.0493359
0.0512334
0.0531309
0.0550285
0.056926
0.0588235
0.0607211
0.0626186
0.0645161
0.0664137
0.0683112
0.0702087
0.0721063
0.0740038
0.0759013
0.0777989
0.0796964
0.0815939
0.0834915
0.085389
0.0872865
0.0891841
0.0910816
0.0929791
0.0948767
0
0.00253004
0.00506009
0.00759013
0.0101202
0.0126502
0.0151803
0.0177103
0.0202404
0.0227704
0.0253004
0.0278305
0.0303605
0.0328906
0.0354206
0.0379507
0.0404807
0.0430108
0.0455408
0.0480708
0.0506009
0.0531309
0.055661
0.058191
0.0607211
0.0632511
0.0657812
0.0683112
0.0708412
0.0733713
0.0759013
0.0784314
0.0809614
0.0834915
0.0860215
0.0885515
0.0910816
0.0936116
0.0961417
0.0986717
0.101202
0.103732
0.106262
0.108792
0.111322
0.113852
0.116382
0.118912
0.121442
0.123972
0.126502
0
0.00316256
0.00632511
0.00948767
0.0126502
0.0158128
0.0189753
0.0221379
0.0253004
0.028463
0.0316256
0.0347881
0.0379507
0.0411132
0.0442758
0.0474383
0.0506009
0.0537634
0.056926
0.0600886
0.0632511
0.0664137
0.0695762
0.0727388
0.0759013
0.0790639
0.0822264
0.085389
0.0885515
0.0917141
0.0948767
0.0980392
0.101202
0.104364
0.107527
0.110689
0.113852
0.117015
0.120177
0.12334
0.126502
0.129665
0.132827
0.13599
0.139152
0.142315
0.145478
0.14864
0.151803
0.154965
0.158128
0
0.00379507
0.00759013
0.0113852
0.0151803
0.0189753
0.0227704
0.0265655
0.0303605
0.0341556
0.0379507
0.0417457
0.0455408
0.0493359
0.0531309
0.056926
0.0607211
0.0645161
0.0683112
0.0721063
0.0759013
0.0796964
0.0834915
0.0872865
0.0910816
0.0948767
0.0986717
0.102467
0.106262
0.110057
0.113852
0.117647
0.121442
0.125237
0.129032
0.132827
0.136622
0.140417
0.144213
0.148008
0.151803
0.155598
0.159393
0.163188
0.166983
0.170778
0.174573
0.178368
0.182163
0.185958
0.189753
0
0.00442758
0.00885515
0.0132827
0.0177103
0.0221379
0.0265655
0.030993
0.0354206
0.0398482
0.0442758
0.0487034
0.0531309
0.0575585
0.0619861
0.0664137
0.0708412
0.0752688
0.0796964
0.084124
0.0885515
0.0929791
0.0974067
0.101834
0.106262
0.110689
0.115117
0.119545
0.123972
0.1284
0.132827
0.137255
0.141682
0.14611
0.150538
0.154965
0.159393
0.16382
0.168248
0.172676
0.177103
0.181531
0.185958
0.190386
0.194813
0.199241
0.203669
0.208096
0.212524
0.216951
0.221379
0
0.00506009
0.0101202
0.0151803
0.0202404
0.0253004
0.0303605
0.0354206
0.0404807
0.0455408
0.0506009
0.055661
0.0607211
0.0657812
0.0708412
0.0759013
0.0809614
0.0860215
0.0910816
0.0961417
0.101202
0.106262
0.111322
0.116382
0.121442
0.126502
0.131562
0.136622
0.141682
0.146743
0.151803
0.156863
0.161923
0.166983
0.172043
0.177103
0.182163
0.187223
0.192283
0.197343
0.202404
0.207464
0.212524
0.217584
0.222644
0.227704
0.232764
0.237824
0.242884
0.247944
0.253004
0
0.0056926
0.0113852
0.0170778
0.0227704
0.028463
0.0341556
0.0398482
0.0455408
0.0512334
0.056926
0.0626186
0.0683112
0.0740038
0.0796964
0.085389
0.0910816
0.0967742
0.102467
0.108159
0.113852
0.119545
0.125237
0.13093
0.136622
0.142315
0.148008
0.1537
0.159393
0.165085
0.170778
0.176471
0.182163
0.187856
0.193548
0.199241
0.204934
0.210626
0.216319
0.222011
0.227704
0.233397
0.239089
0.244782
0.250474
0.256167
0.26186
0.267552
0.273245
0.278937
0.28463
0
0.00632511
0.0126502
0.0189753
0.0253004
0.0316256
0.0379507
0.0442758
0.0506009
0.056926
0.0632511
0.0695762
0.0759013
0.0822264
0.0885515
0.0948767
0.101202
0.107527
0.113852
0.120177
0.126502
0.132827
0.139152
0.145478
0.151803
0.158128
0.164453
0.170778
0.177103
0.183428
0.189753
0.196078
0.202404
0.208729
0.215054
0.221379
0.227704
0.234029
0.240354
0.246679
0.253004
0.25933
0.265655
0.27198
0.278305
0.28463
0.290955
0.29728
0.303605
0.30993
0.316256
0
0.00695762
0.0139152
0.0208729
0.0278305
0.0347881
0.0417457
0.0487034
0.055661
0.0626186
0.0695762
0.0765338
0.0834915
0.0904491
0.0974067
0.104364
0.111322
0.11828
0.125237
0.132195
0.139152
0.14611
0.153068
0.160025
0.166983
0.173941
0.180898
0.187856
0.194813
0.201771
0.208729
0.215686
0.222644
0.229602
0.236559
0.243517
0.250474
0.257432
0.26439
0.271347
0.278305
0.285262
0.29222
0.299178
0.306135
0.313093
0.320051
0.327008
0.333966
0.340923
0.347881
0
0.00759013
0.0151803
0.0227704
0.0303605
0.0379507
0.0455408
0.0531309
0.0607211
0.0683112
0.0759013
0.0834915
0.0910816
0.0986717
0.106262
0.113852
0.121442
0.129032
0.136622
0.144213
0.151803
0.159393
0.166983
0.174573
0.182163
0.189753
0.197343
0.204934
0.212524
0.220114
0.227704
0.235294
0.242884
0.250474
0.258065
0.265655
0.273245
0.280835
0.288425
0.296015
0.303605
0.311195
0.318786
0.326376
0.333966
0.341556
0.349146
0.356736
0.364326
0.371917
0.379507
0
0.00822264
0.0164453
0.0246679
0.0328906
0.0411132
0.0493359
0.0575585
0.0657812
0.0740038
0.0822264
0.0904491
0.0986717
0.106894
0.115117
0.12334
0.131562
0.139785
0.148008
0.15623
0.164453
0.172676
0.180898
0.189121
0.197343
0.205566
0.213789
0.222011
0.230234
0.238457
0.246679
0.254902
0.263125
0.271347
0.27957
0.287793
0.296015
0.304238
0.31246
0.320683
0.328906
0.337128
0.345351
0.353574
0.361796
0.370019
0.378242
0.386464
0.394687
0.40291
0.411132
0
0.00885515
0.0177103
0.0265655
0.0354206
0.0442758
0.0531309
0.0619861
0.0708412
0.0796964
0.0885515
0.0974067
0.106262
0.115117
0.123972
0.132827
0.141682
0.150538
0.159393
0.168248
0.177103
0.185958
0.194813
0.203669
0.212524
0.221379
0.230234
0.239089
0.247944
0.256799
0.265655
0.27451
0.283365
0.29222
0.301075
0.30993
0.318786
0.327641
0.336496
0.345351
0.354206
0.363061
0.371917
0.380772
0.389627
0.398482
0.407337
0.416192
0.425047
0.433903
0.442758
0
0.00948767
0.0189753
0.028463
0.0379507
0.0474383
0.056926
0.0664137
0.0759013
0.085389
0.0948767
0.104364
0.113852
0.12334
0.132827
0.142315
0.151803
0.16129
0.170778
0.180266
0.189753
0.199241
0.208729
0.218216
0.227704
0.237192
0.246679
0.256167
0.265655
0.275142
0.28463
0.294118
0.303605
0.313093
0.322581
0.332068
0.341556
0.351044
0.360531
0.370019
0.379507
0.388994
0.398482
0.40797
0.417457
0.426945
0.436433
0.44592
0.455408
0.464896
0.474383
0
0.0101202
0.0202404
0.0303605
0.0404807
0.0506009
0.0607211
0.0708412
0.0809614
0.0910816
0.101202
0.111322
0.121442
0.131562
0.141682
0.151803
0.161923
0.172043
0.182163
0.192283
0.202404
0.212524
0.222644
0.232764
0.242884
0.253004
0.263125
0.273245
0.283365
0.293485
0.303605
0.313725
0.323846
0.333966
0.344086
0.354206
0.364326
0.374447
0.384567
0.394687
0.404807
0.414927
0.425047
0.435168
0.445288
0.455408
0.465528
0.475648
0.485769
0.495889
0.506009
0
0.0107527
0.0215054
0.0322581
0.0430108
0.0537634
0.0645161
0.0752688
0.0860215
0.0967742
0.107527
0.11828
0.129032
0.139785
0.150538
0.16129
0.172043
0.182796
0.193548
0.204301
0.215054
0.225806
0.236559
0.247312
0.258065
0.268817
0.27957
0.290323
0.301075
0.311828
0.322581
0.333333
0.344086
0.354839
0.365591
0.376344
0.387097
0.397849
0.408602
0.419355
0.430108
0.44086
0.451613
0.462366
0.473118
0.483871
0.494624
0.505376
0.516129
0.526882
0.537634
0
0.0113852
0.0227704
0.0341556
0.0455408
0.056926
0.0683112
0.0796964
0.0910816
0.102467
0.113852
0.125237
0.136622
0.148008
0.159393
0.170778
0.182163
0.193548
0.204934
0.216319
0.227704
0.239089
0.250474
0.26186
0.273245
0.28463
0.296015
0.3074
0.318786
0.330171
0.341556
0.352941
0.364326
0.375712
0.387097
0.398482
0.409867
0.421252
0.432638
0.444023
0.455408
0.466793
0.478178
0.489564
0.500949
0.512334
0.523719
0.535104
0.54649
0.557875
0.56926
0
0.0120177
0.0240354
0.0360531
0.0480708
0.0600886
0.0721063
0.084124
0.0961417
0.108159
0.120177
0.132195
0.144213
0.15623
0.168248
0.180266
0.192283
0.204301
0.216319
0.228336
0.240354
0.252372
0.26439
0.276407
0.288425
0.300443
0.31246
0.324478
0.336496
0.348514
0.360531
0.372549
0.384567
0.396584
0.408602
0.42062
0.432638
0.444655
0.456673
0.468691
0.480708
0.492726
0.504744
0.516762
0.528779
0.540797
0.552815
0.564832
0.57685
0.588868
0.600886
0
0.0126502
0.0253004
0.0379507
0.0506009
0.0632511
0.0759013
0.0885515
0.101202
0.113852
0.126502
0.139152
0.151803
0.164453
0.177103
0.189753
0.202404
0.215054
0.227704
0.240354
0.253004
0.265655
0.278305
0.290955
0.303605
0.316256
0.328906
0.341556
0.354206
0.366856
0.379507
0.392157
0.404807
0.417457
0.430108
0.442758
0.455408
0.468058
0.480708
0.493359
0.506009
0.518659
0.531309
0.54396
0.55661
0.56926
0.58191
0.59456
0.607211
0.619861
0.632511
0
0.0132827
0.0265655
0.0398482
0.0531309
0.0664137
0.0796964
0.0929791
0.106262
0.119545
0.132827
0.14611
0.159393
0.172676
0.185958
0.199241
0.212524
0.225806
0.239089
0.252372
0.265655
0.278937
0.29222
0.305503
0.318786
0.332068
0.345351
0.358634
0.371917
0.385199
0.398482
0.411765
0.425047
0.43833
0.451613
0.464896
0.478178
0.491461
0.504744
0.518027
0.531309
0.544592
0.557875
0.571157
0.58444
0.597723
0.611006
0.624288
0.637571
0.650854
0.664137
0
0.0139152
0.0278305
0.0417457
0.055661
0.0695762
0.0834915
0.0974067
0.111322
0.125237
0.139152
0.153068
0.166983
0.180898
0.194813
0.208729
0.222644
0.236559
0.250474
0.26439
0.278305
0.29222
0.306135
0.320051
0.333966
0.347881
0.361796
0.375712
0.389627
0.403542
0.417457
0.431373
0.445288
0.459203
0.473118
0.487034
0.500949
0.514864
0.528779
0.542694
0.55661
0.570525
0.58444
0.598355
0.612271
0.626186
0.640101
0.654016
0.667932
0.681847
0.695762
0
0.0145478
0.0290955
0.0436433
0.058191
0.0727388
0.0872865
0.101834
0.116382
0.13093
0.145478
0.160025
0.174573
0.189121
0.203669
0.218216
0.232764
0.247312
0.26186
0.276407
0.290955
0.305503
0.320051
0.334598
0.349146
0.363694
0.378242
0.392789
0.407337
0.421885
0.436433
0.45098
0.465528
0.480076
0.494624
0.509171
0.523719
0.538267
0.552815
0.567362
0.58191
0.596458
0.611006
0.625553
0.640101
0.654649
0.669197
0.683744
0.698292
0.71284
0.727388
0
0.0151803
0.0303605
0.0455408
0.0607211
0.0759013
0.0910816
0.106262
0.121442
0.136622
0.151803
0.166983
0.182163
0.197343
0.212524
0.227704
0.242884
0.258065
0.273245
0.288425
0.303605
0.318786
0.333966
0.349146
0.364326
0.379507
0.394687
0.409867
0.425047
0.440228
0.455408
0.470588
0.485769
0.500949
0.516129
0.531309
0.54649
0.56167
0.57685
0.59203
0.607211
0.622391
0.637571
0.652751
0.667932
0.683112
0.698292
0.713472
0.728653
0.743833
0.759013
0
0.0158128
0.0316256
0.0474383
0.0632511
0.0790639
0.0948767
0.110689
0.126502
0.142315
0.158128
0.173941
0.189753
0.205566
0.221379
0.237192
0.253004
0.268817
0.28463
0.300443
0.316256
0.332068
0.347881
0.363694
0.379507
0.395319
0.411132
0.426945
0.442758
0.458571
0.474383
0.490196
0.506009
0.521822
0.537634
0.553447
0.56926
0.585073
0.600886
0.616698
0.632511
0.648324
0.664137
0.679949
0.695762
0.711575
0.727388
0.743201
0.759013
0.774826
0.790639
0
0.0164453
0.0328906
0.0493359
0.0657812
0.0822264
0.0986717
0.115117
0.131562
0.148008
0.164453
0.180898
0.197343
0.213789
0.230234
0.246679
0.263125
0.27957
0.296015
0.31246
0.328906
0.345351
0.361796
0.378242
0.394687
0.411132
0.427577
0.444023
0.460468
0.476913
0.493359
0.509804
0.526249
0.542694
0.55914
0.575585
0.59203
0.608476
0.624921
0.641366
0.657812
0.674257
0.690702
0.707147
0.723593
0.740038
0.756483
0.772929
0.789374
0.805819
0.822264
0
0.0170778
0.0341556
0.0512334
0.0683112
0.085389
0.102467
0.119545
0.136622
0.1537
0.170778
0.187856
0.204934
0.222011
0.239089
0.256167
0.273245
0.290323
0.3074
0.324478
0.341556
0.358634
0.375712
0.392789
0.409867
0.426945
0.444023
0.461101
0.478178
0.495256
0.512334
0.529412
0.54649
0.563567
0.580645
0.597723
0.614801
0.631879
0.648956
0.666034
0.683112
0.70019
0.717268
0.734345
0.751423
0.768501
0.785579
0.802657
0.819734
0.836812
0.85389
0
0.0177103
0.0354206
0.0531309
0.0708412
0.0885515
0.106262
0.123972
0.141682
0.159393
0.177103
0.194813
0.212524
0.230234
0.247944
0.265655
0.283365
0.301075
0.318786
0.336496
0.354206
0.371917
0.389627
0.407337
0.425047
0.442758
0.460468
0.478178
0.495889
0.513599
0.531309
0.54902
0.56673
0.58444
0.602151
0.619861
0.637571
0.655281
0.672992
0.690702
0.708412
0.726123
0.743833
0.761543
0.779254
0.796964
0.814674
0.832385
0.850095
0.867805
0.885515
0
0.0183428
0.0366856
0.0550285
0.0733713
0.0917141
0.110057
0.1284
0.146743
0.165085
0.183428
0.201771
0.220114
0.238457
0.256799
0.275142
0.293485
0.311828
0.330171
0.348514
0.366856
0.385199
0.403542
0.421885
0.440228
0.458571
0.476913
0.495256
0.513599
0.531942
0.550285
0.568627
0.58697
0.605313
0.623656
0.641999
0.660342
0.678684
0.697027
0.71537
0.733713
0.752056
0.770398
0.788741
0.807084
0.825427
0.84377
0.862113
0.880455
0.898798
0.917141
0
0.0189753
0.0379507
0.056926
0.0759013
0.0948767
0.113852
0.132827
0.151803
0.170778
0.189753
0.208729
0.227704
0.246679
0.265655
0.28463
0.303605
0.322581
0.341556
0.360531
0.379507
0.398482
0.417457
0.436433
0.455408
0.474383
0.493359
0.512334
0.531309
0.550285
0.56926
0.588235
0.607211
0.626186
0.645161
0.664137
0.683112
0.702087
0.721063
0.740038
0.759013
0.777989
0.796964
0.815939
0.834915
0.85389
0.872865
0.891841
0.910816
0.929791
0.948767
